HEADER
"PSFversion" "1.00"
"V0n" "analogLib_vdc_spectre"
"V3n V2n V1n" "analogLib_vpulse_spectre"
"I0n" "strongARM_alib"
