HEADER
"PSFversion" "1.00"
"M10n M9n M8n M7n M6n M5n" "analogLib_pmos4_spectre"
"M4n M3n M2n M1n M0n" "analogLib_nmos4_spectre"
"CLKv" ":1v"
"GNDv" ":2v"
"VDDv" ":3v"
"Vin1v" ":4v"
"Vin2v" ":5v"
"outnv" ":6v"
"outpv" ":7v"
